 vasp.5.3.5 31Mar14 (build Sep 19 2014 09:35:15) complex                        
  
 executed on             LinuxIFC date 2015.04.24  21:57:37
 running on    4 total cores
 distrk:  each k-point on    4 cores,    1 groups
 distr:  one band on NCORES_PER_BAND=   1 cores,    4 groups


--------------------------------------------------------------------------------------------------------


 INCAR:
 POTCAR:    PAW_PBE C 08Apr2002                   
 POTCAR:    PAW_PBE O 08Apr2002                   
 POTCAR:    PAW_PBE C 08Apr2002                   
   VRHFIN =C: s2p2                                                              
   LEXCH  = PE                                                                  
   EATOM  =   147.1560 eV,   10.8157 Ry                                         
                                                                                
   TITEL  = PAW_PBE C 08Apr2002                                                 
   LULTRA =        F    use ultrasoft PP ?                                      
   IUNSCR =        1    unscreen: 0-lin 1-nonlin 2-no                           
   RPACOR =    1.200    partial core radius                                     
   POMASS =   12.011; ZVAL   =    4.000    mass and valenz                      
   RCORE  =    1.500    outmost cutoff radius                                   
   RWIGS  =    1.630; RWIGS  =    0.863    wigner-seitz radius (au A)           
   ENMAX  =  400.000; ENMIN  =  300.000 eV                                      
   ICORE  =        2    local potential                                         
   LCOR   =        T    correct aug charges                                     
   LPAW   =        T    paw PP                                                  
   EAUG   =  644.873                                                            
   DEXC   =    0.000                                                            
   RMAX   =    1.529    core radius for proj-oper                               
   RAUG   =    1.300    factor for augmentation sphere                          
   RDEP   =    1.501    radius for radial grids                                 
   RDEPT  =    1.300    core radius for aug-charge                              
                                                                                
   Atomic configuration                                                         
    4 entries                                                                   
     n  l   j            E        occ.                                          
     1  0  0.50      -273.3789   2.0000                                         
     2  0  0.50       -13.7508   2.0000                                         
     2  1  0.50        -5.2854   2.0000                                         
     3  2  1.50        -5.4423   0.0000                                         
   Description                                                                  
     l       E           TYP  RCUT    TYP  RCUT                                 
     0    -13.7508458     23  1.200                                             
     0     -8.2022199     23  1.200                                             
     1     -5.2854383     23  1.500                                             
     1     34.0145650     23  1.500                                             
     2     -5.4423304      7  1.500                                             
  local pseudopotential read in
  partial core-charges read in
  partial kinetic energy density read in
  atomic valenz-charges read in
  non local Contribution for L=           0  read in
    real space projection operators read in
  non local Contribution for L=           0  read in
    real space projection operators read in
  non local Contribution for L=           1  read in
    real space projection operators read in
  non local Contribution for L=           1  read in
    real space projection operators read in
    PAW grid and wavefunctions read in
 
   number of l-projection  operators is LMAX  =           4
   number of lm-projection operators is LMMAX =           8
 
 POTCAR:    PAW_PBE O 08Apr2002                   
   VRHFIN =O: s2p4                                                              
   LEXCH  = PE                                                                  
   EATOM  =   432.3788 eV,   31.7789 Ry                                         
                                                                                
   TITEL  = PAW_PBE O 08Apr2002                                                 
   LULTRA =        F    use ultrasoft PP ?                                      
   IUNSCR =        1    unscreen: 0-lin 1-nonlin 2-no                           
   RPACOR =    1.200    partial core radius                                     
   POMASS =   16.000; ZVAL   =    6.000    mass and valenz                      
   RCORE  =    1.520    outmost cutoff radius                                   
   RWIGS  =    1.550; RWIGS  =    0.820    wigner-seitz radius (au A)           
   ENMAX  =  400.000; ENMIN  =  300.000 eV                                      
   ICORE  =        2    local potential                                         
   LCOR   =        T    correct aug charges                                     
   LPAW   =        T    paw PP                                                  
   EAUG   =  605.392                                                            
   DEXC   =    0.000                                                            
   RMAX   =    1.553    core radius for proj-oper                               
   RAUG   =    1.300    factor for augmentation sphere                          
   RDEP   =    1.550    radius for radial grids                                 
   RDEPT  =    1.329    core radius for aug-charge                              
                                                                                
   Atomic configuration                                                         
    4 entries                                                                   
     n  l   j            E        occ.                                          
     1  0  0.50      -514.6923   2.0000                                         
     2  0  0.50       -23.9615   2.0000                                         
     2  1  0.50        -9.0305   4.0000                                         
     3  2  1.50        -9.5241   0.0000                                         
   Description                                                                  
     l       E           TYP  RCUT    TYP  RCUT                                 
     0    -23.9615318     23  1.200                                             
     0     -9.5240782     23  1.200                                             
     1     -9.0304911     23  1.520                                             
     1      8.1634956     23  1.520                                             
     2     -9.5240782      7  1.500                                             
  local pseudopotential read in
  partial core-charges read in
  partial kinetic energy density read in
  kinetic energy density of atom read in
  atomic valenz-charges read in
  non local Contribution for L=           0  read in
    real space projection operators read in
  non local Contribution for L=           0  read in
    real space projection operators read in
  non local Contribution for L=           1  read in
    real space projection operators read in
  non local Contribution for L=           1  read in
    real space projection operators read in
    PAW grid and wavefunctions read in
 
   number of l-projection  operators is LMAX  =           4
   number of lm-projection operators is LMMAX =           8
 
  PAW_PBE C 08Apr2002                   :
 energy of atom  1       EATOM= -147.1560
 kinetic energy error for atom=    0.0288 (will be added to EATOM!!)
  PAW_PBE O 08Apr2002                   :
 energy of atom  2       EATOM= -432.3788
 kinetic energy error for atom=    0.1156 (will be added to EATOM!!)
 
 
 POSCAR:  C  O                                   
  positions in cartesian coordinates
  No initial velocities read in
 exchange correlation table for  LEXCH =        8
   RHO(1)=    0.500       N(1)  =     2000
   RHO(2)=  100.500       N(2)  =     4000
 


--------------------------------------------------------------------------------------------------------


 ion  position               nearest neighbor table
   1  0.500  0.500  0.412-   2 1.36
   2  0.500  0.500  0.588-   1 1.36
 
  LATTYP: Found a simple tetragonal cell.
 ALAT       =     6.5000000000
 C/A-ratio  =     1.1846153846
  
  Lattice vectors:
  
 A1 = (   6.5000000000,   0.0000000000,   0.0000000000)
 A2 = (   0.0000000000,   6.5000000000,   0.0000000000)
 A3 = (   0.0000000000,   0.0000000000,   7.7000000000)


Analysis of symmetry for initial positions (statically):
=====================================================================
 Subroutine PRICEL returns:
 Original cell was already a primitive cell.
 

 Routine SETGRP: Setting up the symmetry group for a 
 simple tetragonal supercell.


 Subroutine GETGRP returns: Found  8 space group operations
 (whereof  8 operations were pure point group operations)
 out of a pool of 16 trial point group operations.


The static configuration has the point symmetry C_4v.


Analysis of symmetry for dynamics (positions and initial velocities):
=====================================================================
 Subroutine PRICEL returns:
 Original cell was already a primitive cell.
 

 Routine SETGRP: Setting up the symmetry group for a 
 simple tetragonal supercell.


 Subroutine GETGRP returns: Found  8 space group operations
 (whereof  8 operations were pure point group operations)
 out of a pool of 16 trial point group operations.


The dynamic configuration has the point symmetry C_4v.
 
 
 KPOINTS: KPOINTS created by Atomic Simulation Env

Automatic generation of k-mesh.
Space group operators:
 irot       det(A)        alpha          n_x          n_y          n_z        tau_x        tau_y        tau_z
    1     1.000000     0.000000     1.000000     0.000000     0.000000     0.000000     0.000000     0.000000
    2     1.000000    90.000000     0.000000     0.000000    -1.000000     0.000000     0.000000     0.000000
    3     1.000000   180.000000     0.000000     0.000000     1.000000     0.000000     0.000000     0.000000
    4     1.000000    90.000000     0.000000     0.000000     1.000000     0.000000     0.000000     0.000000
    5    -1.000000   180.000000     0.000000     1.000000     0.000000     0.000000     0.000000     0.000000
    6    -1.000000   180.000000     0.707107     0.707107     0.000000     0.000000     0.000000     0.000000
    7    -1.000000   180.000000     1.000000     0.000000     0.000000     0.000000     0.000000     0.000000
    8    -1.000000   180.000000     0.707107    -0.707107     0.000000     0.000000     0.000000     0.000000
 
 Subroutine IBZKPT returns following result:
 ===========================================
 
 Found      1 irreducible k-points:
 
 Following reciprocal coordinates:
            Coordinates               Weight
  0.000000  0.000000  0.000000      1.000000
 
 Following cartesian coordinates:
            Coordinates               Weight
  0.000000  0.000000  0.000000      1.000000
 


--------------------------------------------------------------------------------------------------------




 Dimension of arrays:
   k-points           NKPTS =      1   k-points in BZ     NKDIM =      1   number of bands    NBANDS=     12
   number of dos      NEDOS =    301   number of ions     NIONS =      2
   non local maximal  LDIM  =      4   non local SUM 2l+1 LMDIM =      8
   total plane-waves  NPLWV =  88200
   max r-space proj   IRMAX =      1   max aug-charges    IRDMAX=   3716
   dimension x,y,z NGX =    42 NGY =   42 NGZ =   50
   dimension x,y,z NGXF=    84 NGYF=   84 NGZF=  100
   support grid    NGXF=    84 NGYF=   84 NGZF=  100
   ions per type =               1   1
 NGX,Y,Z   is equivalent  to a cutoff of  10.74, 10.74, 10.80 a.u.
 NGXF,Y,Z  is equivalent  to a cutoff of  21.48, 21.48, 21.59 a.u.


 I would recommend the setting:
   dimension x,y,z NGX =    42 NGY =   42 NGZ =   50
 SYSTEM =  unknown system                          
 POSCAR =   C  O                                   

 Startparameter for this run:
   NWRITE =      2    write-flag & timer
   PREC   = accura    normal or accurate (medium, high low for compatibility)
   ISTART =      0    job   : 0-new  1-cont  2-samecut
   ICHARG =      2    charge: 1-file 2-atom 10-const
   ISPIN  =      1    spin polarized calculation?
   LNONCOLLINEAR =      F non collinear calculations
   LSORBIT =      F    spin-orbit coupling
   INIWAV =      1    electr: 0-lowe 1-rand  2-diag
   LASPH  =      F    aspherical Exc in radial PAW
   METAGGA=      F    non-selfconsistent MetaGGA calc.

 Electronic Relaxation 1
   ENCUT  =  400.0 eV  29.40 Ry    5.42 a.u.  10.60 10.60 12.56*2*pi/ulx,y,z
   ENINI  =  400.0     initial cutoff
   ENAUG  =  644.9 eV  augmentation charge cutoff
   NELM   =     60;   NELMIN=  2; NELMDL= -5     # of ELM steps 
   EDIFF  = 0.1E-03   stopping-criterion for ELM
   LREAL  =      F    real-space projection
   NLSPLINE    = F    spline interpolate recip. space projectors
   LCOMPAT=      F    compatible to vasp.4.4
   GGA_COMPAT  = T    GGA compatible to vasp.4.4-vasp.4.6
   LMAXPAW     = -100 max onsite density
   LMAXMIX     =    2 max onsite mixed and CHGCAR
   VOSKOWN=      0    Vosko Wilk Nusair interpolation
   ROPT   =    0.00000   0.00000
 Ionic relaxation
   EDIFFG = 0.1E-02   stopping-criterion for IOM
   NSW    =     20    number of steps for IOM
   NBLOCK =      1;   KBLOCK =     20    inner block; outer block 
   IBRION =      2    ionic relax: 0-MD 1-quasi-New 2-CG
   NFREE  =      1    steps in history (QN), initial steepest desc. (CG)
   ISIF   =      2    stress and relaxation
   IWAVPR =     11    prediction:  0-non 1-charg 2-wave 3-comb
   ISYM   =      2    0-nonsym 1-usesym 2-fastsym
   LCORR  =      T    Harris-Foulkes like correction to forces

   POTIM  = 0.5000    time-step for ionic-motion
   TEIN   =    0.0    initial temperature
   TEBEG  =    0.0;   TEEND  =   0.0 temperature during run
   SMASS  =  -3.00    Nose mass-parameter (am)
   estimated Nose-frequenzy (Omega)   =  0.10E-29 period in steps =****** mass=  -0.966E-27a.u.
   SCALEE = 1.0000    scale energy and forces
   NPACO  =    256;   APACO  = 16.0  distance and # of slots for P.C.
   PSTRESS=    0.0 pullay stress

  Mass of Ions in am
   POMASS =  12.01 16.00
  Ionic Valenz
   ZVAL   =   4.00  6.00
  Atomic Wigner-Seitz radii
   RWIGS  =  -1.00 -1.00
  virtual crystal weights 
   VCA    =   1.00  1.00
   NELECT =      10.0000    total number of electrons
   NUPDOWN=      -1.0000    fix difference up-down

 DOS related values:
   EMIN   =  10.00;   EMAX   =-10.00  energy-range for DOS
   EFERMI =   0.00
   ISMEAR =     1;   SIGMA  =   0.20  broadening in eV -4-tet -1-fermi 0-gaus

 Electronic relaxation 2 (details)
   IALGO  =     38    algorithm
   LDIAG  =      T    sub-space diagonalisation (order eigenvalues)
   LSUBROT=      F    optimize rotation matrix (better conditioning)
   TURBO    =      0    0=normal 1=particle mesh
   IRESTART =      0    0=no restart 2=restart with 2 vectors
   NREBOOT  =      0    no. of reboots
   NMIN     =      0    reboot dimension
   EREF     =   0.00    reference energy to select bands
   IMIX   =      4    mixing-type and parameters
     AMIX     =   0.40;   BMIX     =  1.00
     AMIX_MAG =   1.60;   BMIX_MAG =  1.00
     AMIN     =   0.10
     WC   =   100.;   INIMIX=   1;  MIXPRE=   1;  MAXMIX= -45

 Intra band minimization:
   WEIMIN = 0.0010     energy-eigenvalue tresh-hold
   EBREAK =  0.21E-05  absolut break condition
   DEPER  =   0.30     relativ break condition  

   TIME   =   0.40     timestep for ELM

  volume/ion in A,a.u.               =     162.66      1097.70
  Fermi-wavevector in a.u.,A,eV,Ry     =   0.512825  0.969098  3.578186  0.262989
  Thomas-Fermi vector in A             =   1.526998
 
 Write flags
   LWAVE  =      T    write WAVECAR
   LCHARG =      T    write CHGCAR
   LVTOT  =      F    write LOCPOT, total local potential
   LVHAR  =      F    write LOCPOT, Hartree potential only
   LELF   =      F    write electronic localiz. function (ELF)
   LORBIT =      0    0 simple, 1 ext, 2 COOP (PROOUT)


 Dipole corrections
   LMONO  =      F    monopole corrections only (constant potential shift)
   LDIPOL =      F    correct potential (dipole corrections)
   IDIPOL =      0    1-x, 2-y, 3-z, 4-all directions 
   EPSILON=  1.0000000 bulk dielectric constant

 Exchange correlation treatment:
   GGA     =    --    GGA type
   LEXCH   =     8    internal setting for exchange type
   VOSKOWN=      0    Vosko Wilk Nusair interpolation
   LHFCALC =     F    Hartree Fock is set to
   LHFONE  =     F    Hartree Fock one center treatment
   AEXX    =    0.0000 exact exchange contribution

 Linear response parameters
   LEPSILON=     F    determine dielectric tensor
   LRPA    =     F    only Hartree local field effects (RPA)
   LNABLA  =     F    use nabla operator in PAW spheres
   LVEL    =     F    velocity operator in full k-point grid
   LINTERFAST=   F  fast interpolation
   KINTER  =     0    interpolate to denser k-point grid
   CSHIFT  =0.1000    complex shift for real part using Kramers Kronig
   OMEGAMAX=  -1.0    maximum frequency
   DEG_THRESHOLD= 0.2000000E-02 threshold for treating states as degnerate
   RTIME   =    0.100 relaxation time in fs

 Orbital magnetization related:
   ORBITALMAG=     F  switch on orbital magnetization
   LCHIMAG   =     F  perturbation theory with respect to B field
   DQ        =  0.001000  dq finite difference perturbation B field



--------------------------------------------------------------------------------------------------------


 conjugate gradient relaxation of ions
 charge density and potential will be updated during run
 non-spin polarized calculation
 Variant of blocked Davidson
 Davidson routine will perform the subspace rotation
 perform sub-space diagonalisation
    after iterative eigenvector-optimisation
 modified Broyden-mixing scheme, WC =      100.0
 initial mixing is a Kerker type mixing with AMIX =  0.4000 and BMIX =      1.0000
 Hartree-type preconditioning will be used
 using additional bands            7
 reciprocal scheme for non local part
 use partial core corrections
 calculate Harris-corrections to forces 
   (improved forces if not selfconsistent)
 use gradient corrections 
 use of overlap-Matrix (Vanderbilt PP)
 Methfessel and Paxton  Order N= 1 SIGMA  =   0.20


--------------------------------------------------------------------------------------------------------


  energy-cutoff  :      400.00
  volume of cell :      325.33
      direct lattice vectors                 reciprocal lattice vectors
     6.500000000  0.000000000  0.000000000     0.153846154  0.000000000  0.000000000
     0.000000000  6.500000000  0.000000000     0.000000000  0.153846154  0.000000000
     0.000000000  0.000000000  7.700000000     0.000000000  0.000000000  0.129870130

  length of vectors
     6.500000000  6.500000000  7.700000000     0.153846154  0.153846154  0.129870130


 
 k-points in units of 2pi/SCALE and weight: KPOINTS created by Atomic Simulation Env
   0.00000000  0.00000000  0.00000000       1.000
 
 k-points in reciprocal lattice and weights: KPOINTS created by Atomic Simulation Env
   0.00000000  0.00000000  0.00000000       1.000
 
 position of ions in fractional coordinates (direct lattice) 
   0.50000000  0.50000000  0.41163636
   0.50000000  0.50000000  0.58836364
 
 position of ions in cartesian coordinates  (Angst):
   3.25000000  3.25000000  3.16960000
   3.25000000  3.25000000  4.53040000
 


--------------------------------------------------------------------------------------------------------


 k-point  1 :   0.0000 0.0000 0.0000  plane waves:    5957

 maximum and minimum number of plane-waves per node :      5957     5957

 maximum number of plane-waves:      5957
 maximum index in each direction: 
   IXMAX=   10   IYMAX=   10   IZMAX=   12
   IXMIN=  -10   IYMIN=  -10   IZMIN=  -12

 NGX is ok and might be reduce to  42
 NGY is ok and might be reduce to  42
 NGZ is ok and might be reduce to  50

 serial   3D FFT for wavefunctions
 parallel 3D FFT for charge:
    minimum data exchange during FFTs selected (reduces bandwidth)


 total amount of memory used by VASP on root node    51227. kBytes
========================================================================

   base      :      30000. kBytes
   nonl-proj :        953. kBytes
   fftplans  :       6407. kBytes
   grid      :      13575. kBytes
   one-center:          6. kBytes
   wavefun   :        286. kBytes
 
     INWAV:  cpu time    0.00: real time    0.00
 Broyden mixing: mesh for mixing (old mesh)
   NGX = 21   NGY = 21   NGZ = 25
  (NGX  = 84   NGY  = 84   NGZ  =100)
  gives a total of  11025 points

 initial charge density was supplied:
 charge density of overlapping atoms calculated
 number of electron      10.0000000 magnetization 
 keeping initial charge density in first step


--------------------------------------------------------------------------------------------------------


 Maximum index for augmentation-charges          854 (set IRDMAX)


--------------------------------------------------------------------------------------------------------


 First call to EWALD:  gamma=   0.258
 Maximum number of real-space cells 3x 3x 3
 Maximum number of reciprocal cells 3x 3x 3

 FEWALD executed in parallel
    FEWALD:  cpu time    0.00: real time    0.00


----------------------------------------- Iteration    1(   1)  ---------------------------------------


    POTLOK:  cpu time    0.22: real time    0.22
    SETDIJ:  cpu time    0.00: real time    0.00
     EDDAV:  cpu time    0.07: real time    0.07
       DOS:  cpu time    0.00: real time    0.00
    --------------------------------------------
      LOOP:  cpu time    0.29: real time    0.29

 eigenvalue-minimisations  :    24
 total energy-change (2. order) : 0.8597799E+02  (-0.2404154E+03)
 number of electron      10.0000000 magnetization 
 augmentation part       10.0000000 magnetization 

 Free energy of the ion-electron system (eV)
  ---------------------------------------------------
  alpha Z        PSCENC =         1.34314163
  Ewald energy   TEWEN  =       -37.82129582
  -Hartree energ DENC   =      -445.23952539
  -exchange      EXHF   =         0.00000000
  -V(xc)+E(xc)   XCENC  =        38.34947979
  PAW double counting   =       455.07152327     -457.43959975
  entropy T*S    EENTRO =         0.01830378
  eigenvalues    EBANDS =       -47.69445420
  atomic energy  EATOM  =       579.39041991
  ---------------------------------------------------
  free energy    TOTEN  =        85.97799322 eV

  energy without entropy =       85.95968945  energy(sigma->0) =       85.97189196


--------------------------------------------------------------------------------------------------------




----------------------------------------- Iteration    1(   2)  ---------------------------------------


     EDDAV:  cpu time    0.11: real time    0.11
       DOS:  cpu time    0.00: real time    0.00
    --------------------------------------------
      LOOP:  cpu time    0.11: real time    0.11

 eigenvalue-minimisations  :    40
 total energy-change (2. order) :-0.8422290E+02  (-0.8302825E+02)
 number of electron      10.0000000 magnetization 
 augmentation part       10.0000000 magnetization 

 Free energy of the ion-electron system (eV)
  ---------------------------------------------------
  alpha Z        PSCENC =         1.34314163
  Ewald energy   TEWEN  =       -37.82129582
  -Hartree energ DENC   =      -445.23952539
  -exchange      EXHF   =         0.00000000
  -V(xc)+E(xc)   XCENC  =        38.34947979
  PAW double counting   =       455.07152327     -457.43959975
  entropy T*S    EENTRO =         0.01159581
  eigenvalues    EBANDS =      -131.91065102
  atomic energy  EATOM  =       579.39041991
  ---------------------------------------------------
  free energy    TOTEN  =         1.75508844 eV

  energy without entropy =        1.74349263  energy(sigma->0) =        1.75122317


--------------------------------------------------------------------------------------------------------




----------------------------------------- Iteration    1(   3)  ---------------------------------------


     EDDAV:  cpu time    0.09: real time    0.09
       DOS:  cpu time    0.00: real time    0.00
    --------------------------------------------
      LOOP:  cpu time    0.09: real time    0.09

 eigenvalue-minimisations  :    32
 total energy-change (2. order) :-0.1538017E+02  (-0.1536003E+02)
 number of electron      10.0000000 magnetization 
 augmentation part       10.0000000 magnetization 

 Free energy of the ion-electron system (eV)
  ---------------------------------------------------
  alpha Z        PSCENC =         1.34314163
  Ewald energy   TEWEN  =       -37.82129582
  -Hartree energ DENC   =      -445.23952539
  -exchange      EXHF   =         0.00000000
  -V(xc)+E(xc)   XCENC  =        38.34947979
  PAW double counting   =       455.07152327     -457.43959975
  entropy T*S    EENTRO =         0.01159581
  eigenvalues    EBANDS =      -147.29082331
  atomic energy  EATOM  =       579.39041991
  ---------------------------------------------------
  free energy    TOTEN  =       -13.62508386 eV

  energy without entropy =      -13.63667967  energy(sigma->0) =      -13.62894913


--------------------------------------------------------------------------------------------------------




----------------------------------------- Iteration    1(   4)  ---------------------------------------


     EDDAV:  cpu time    0.09: real time    0.09
       DOS:  cpu time    0.00: real time    0.00
    --------------------------------------------
      LOOP:  cpu time    0.09: real time    0.09

 eigenvalue-minimisations  :    32
 total energy-change (2. order) :-0.1547804E+00  (-0.1547404E+00)
 number of electron      10.0000000 magnetization 
 augmentation part       10.0000000 magnetization 

 Free energy of the ion-electron system (eV)
  ---------------------------------------------------
  alpha Z        PSCENC =         1.34314163
  Ewald energy   TEWEN  =       -37.82129582
  -Hartree energ DENC   =      -445.23952539
  -exchange      EXHF   =         0.00000000
  -V(xc)+E(xc)   XCENC  =        38.34947979
  PAW double counting   =       455.07152327     -457.43959975
  entropy T*S    EENTRO =         0.01159581
  eigenvalues    EBANDS =      -147.44560373
  atomic energy  EATOM  =       579.39041991
  ---------------------------------------------------
  free energy    TOTEN  =       -13.77986428 eV

  energy without entropy =      -13.79146009  energy(sigma->0) =      -13.78372955


--------------------------------------------------------------------------------------------------------




----------------------------------------- Iteration    1(   5)  ---------------------------------------


     EDDAV:  cpu time    0.08: real time    0.08
       DOS:  cpu time    0.00: real time    0.00
    CHARGE:  cpu time    0.03: real time    0.03
    MIXING:  cpu time    0.01: real time    0.01
    --------------------------------------------
      LOOP:  cpu time    0.11: real time    0.11

 eigenvalue-minimisations  :    24
 total energy-change (2. order) :-0.1686231E-02  (-0.1686229E-02)
 number of electron      10.0000023 magnetization 
 augmentation part        0.6545793 magnetization 

 Broyden mixing:
  rms(total) = 0.60460E+00    rms(broyden)= 0.60303E+00
  rms(prec ) = 0.90478E+00
  weight for this iteration     100.00

 Free energy of the ion-electron system (eV)
  ---------------------------------------------------
  alpha Z        PSCENC =         1.34314163
  Ewald energy   TEWEN  =       -37.82129582
  -Hartree energ DENC   =      -445.23952539
  -exchange      EXHF   =         0.00000000
  -V(xc)+E(xc)   XCENC  =        38.34947979
  PAW double counting   =       455.07152327     -457.43959975
  entropy T*S    EENTRO =         0.01159581
  eigenvalues    EBANDS =      -147.44728996
  atomic energy  EATOM  =       579.39041991
  ---------------------------------------------------
  free energy    TOTEN  =       -13.78155051 eV

  energy without entropy =      -13.79314632  energy(sigma->0) =      -13.78541578


--------------------------------------------------------------------------------------------------------




----------------------------------------- Iteration    1(   6)  ---------------------------------------


    POTLOK:  cpu time    0.21: real time    0.21
    SETDIJ:  cpu time    0.00: real time    0.00
     EDDAV:  cpu time    0.07: real time    0.07
       DOS:  cpu time    0.00: real time    0.00
    CHARGE:  cpu time    0.03: real time    0.03
    MIXING:  cpu time    0.01: real time    0.01
    --------------------------------------------
      LOOP:  cpu time    0.32: real time    0.32

 eigenvalue-minimisations  :    24
 total energy-change (2. order) : 0.3320499E+00  (-0.1110419E+01)
 number of electron      10.0000016 magnetization 
 augmentation part        0.4984261 magnetization 

 Broyden mixing:
  rms(total) = 0.46643E+00    rms(broyden)= 0.46575E+00
  rms(prec ) = 0.68306E+00
  weight for this iteration     100.00

 eigenvalues of (default mixing * dielectric matrix)
  average eigenvalue GAMMA=   0.5932
  0.5932

 Free energy of the ion-electron system (eV)
  ---------------------------------------------------
  alpha Z        PSCENC =         1.34314163
  Ewald energy   TEWEN  =       -37.82129582
  -Hartree energ DENC   =      -457.03076024
  -exchange      EXHF   =         0.00000000
  -V(xc)+E(xc)   XCENC  =        39.02398591
  PAW double counting   =       531.36985596     -533.83491922
  entropy T*S    EENTRO =         0.04141543
  eigenvalues    EBANDS =      -135.93134413
  atomic energy  EATOM  =       579.39041991
  ---------------------------------------------------
  free energy    TOTEN  =       -13.44950057 eV

  energy without entropy =      -13.49091601  energy(sigma->0) =      -13.46330572


--------------------------------------------------------------------------------------------------------




----------------------------------------- Iteration    1(   7)  ---------------------------------------


    POTLOK:  cpu time    0.20: real time    0.20
    SETDIJ:  cpu time    0.00: real time    0.00
     EDDAV:  cpu time    0.07: real time    0.07
       DOS:  cpu time    0.00: real time    0.00
    CHARGE:  cpu time    0.03: real time    0.03
    MIXING:  cpu time    0.01: real time    0.01
    --------------------------------------------
      LOOP:  cpu time    0.31: real time    0.31

 eigenvalue-minimisations  :    24
 total energy-change (2. order) : 0.2805287E+00  (-0.3168564E+00)
 number of electron      10.0000019 magnetization 
 augmentation part        0.5668055 magnetization 

 Broyden mixing:
  rms(total) = 0.18920E+00    rms(broyden)= 0.18907E+00
  rms(prec ) = 0.23791E+00
  weight for this iteration     100.00

 eigenvalues of (default mixing * dielectric matrix)
  average eigenvalue GAMMA=   1.4901
  2.4149  0.5653

 Free energy of the ion-electron system (eV)
  ---------------------------------------------------
  alpha Z        PSCENC =         1.34314163
  Ewald energy   TEWEN  =       -37.82129582
  -Hartree energ DENC   =      -453.47941057
  -exchange      EXHF   =         0.00000000
  -V(xc)+E(xc)   XCENC  =        38.83295265
  PAW double counting   =       547.20068511     -549.55766500
  entropy T*S    EENTRO =         0.01159613
  eigenvalues    EBANDS =      -139.08939596
  atomic energy  EATOM  =       579.39041991
  ---------------------------------------------------
  free energy    TOTEN  =       -13.16897192 eV

  energy without entropy =      -13.18056805  energy(sigma->0) =      -13.17283730


--------------------------------------------------------------------------------------------------------




----------------------------------------- Iteration    1(   8)  ---------------------------------------


    POTLOK:  cpu time    0.20: real time    0.20
    SETDIJ:  cpu time    0.00: real time    0.00
     EDDAV:  cpu time    0.07: real time    0.07
       DOS:  cpu time    0.00: real time    0.00
    CHARGE:  cpu time    0.03: real time    0.03
    MIXING:  cpu time    0.01: real time    0.01
    --------------------------------------------
      LOOP:  cpu time    0.32: real time    0.32

 eigenvalue-minimisations  :    24
 total energy-change (2. order) : 0.3295865E-01  (-0.1828739E-01)
 number of electron      10.0000019 magnetization 
 augmentation part        0.5669586 magnetization 

 Broyden mixing:
  rms(total) = 0.38865E-01    rms(broyden)= 0.38792E-01
  rms(prec ) = 0.59690E-01
  weight for this iteration     100.00

 eigenvalues of (default mixing * dielectric matrix)
  average eigenvalue GAMMA=   1.2730
  0.5720  0.8220  2.4251

 Free energy of the ion-electron system (eV)
  ---------------------------------------------------
  alpha Z        PSCENC =         1.34314163
  Ewald energy   TEWEN  =       -37.82129582
  -Hartree energ DENC   =      -456.07916232
  -exchange      EXHF   =         0.00000000
  -V(xc)+E(xc)   XCENC  =        39.00761130
  PAW double counting   =       619.28647934     -621.55312898
  entropy T*S    EENTRO =         0.01159581
  eigenvalues    EBANDS =      -136.72167414
  atomic energy  EATOM  =       579.39041991
  ---------------------------------------------------
  free energy    TOTEN  =       -13.13601327 eV

  energy without entropy =      -13.14760908  energy(sigma->0) =      -13.13987854


--------------------------------------------------------------------------------------------------------




----------------------------------------- Iteration    1(   9)  ---------------------------------------


    POTLOK:  cpu time    0.20: real time    0.20
    SETDIJ:  cpu time    0.00: real time    0.00
     EDDAV:  cpu time    0.08: real time    0.08
       DOS:  cpu time    0.00: real time    0.00
    CHARGE:  cpu time    0.03: real time    0.03
    MIXING:  cpu time    0.01: real time    0.01
    --------------------------------------------
      LOOP:  cpu time    0.33: real time    0.33

 eigenvalue-minimisations  :    28
 total energy-change (2. order) : 0.1033258E-02  (-0.1447805E-02)
 number of electron      10.0000018 magnetization 
 augmentation part        0.5620493 magnetization 

 Broyden mixing:
  rms(total) = 0.12857E-01    rms(broyden)= 0.12827E-01
  rms(prec ) = 0.20413E-01
  weight for this iteration     100.00

 eigenvalues of (default mixing * dielectric matrix)
  average eigenvalue GAMMA=   1.4691
  0.5713  0.9300  2.1876  2.1876

 Free energy of the ion-electron system (eV)
  ---------------------------------------------------
  alpha Z        PSCENC =         1.34314163
  Ewald energy   TEWEN  =       -37.82129582
  -Hartree energ DENC   =      -456.45370854
  -exchange      EXHF   =         0.00000000
  -V(xc)+E(xc)   XCENC  =        39.02200526
  PAW double counting   =       619.41445177     -621.68022989
  entropy T*S    EENTRO =         0.01159581
  eigenvalues    EBANDS =      -136.36136014
  atomic energy  EATOM  =       579.39041991
  ---------------------------------------------------
  free energy    TOTEN  =       -13.13498001 eV

  energy without entropy =      -13.14657582  energy(sigma->0) =      -13.13884528


--------------------------------------------------------------------------------------------------------




----------------------------------------- Iteration    1(  10)  ---------------------------------------


    POTLOK:  cpu time    0.21: real time    0.22
    SETDIJ:  cpu time    0.00: real time    0.00
     EDDAV:  cpu time    0.08: real time    0.08
       DOS:  cpu time    0.00: real time    0.00
    CHARGE:  cpu time    0.03: real time    0.03
    MIXING:  cpu time    0.01: real time    0.01
    --------------------------------------------
      LOOP:  cpu time    0.34: real time    0.34

 eigenvalue-minimisations  :    24
 total energy-change (2. order) :-0.2002191E-02  (-0.1709769E-03)
 number of electron      10.0000018 magnetization 
 augmentation part        0.5615178 magnetization 

 Broyden mixing:
  rms(total) = 0.33629E-02    rms(broyden)= 0.33536E-02
  rms(prec ) = 0.84045E-02
  weight for this iteration     100.00

 eigenvalues of (default mixing * dielectric matrix)
  average eigenvalue GAMMA=   1.3821
  2.4417  2.0813  0.5710  0.9082  0.9082

 Free energy of the ion-electron system (eV)
  ---------------------------------------------------
  alpha Z        PSCENC =         1.34314163
  Ewald energy   TEWEN  =       -37.82129582
  -Hartree energ DENC   =      -456.66575562
  -exchange      EXHF   =         0.00000000
  -V(xc)+E(xc)   XCENC  =        39.02618697
  PAW double counting   =       618.65525290     -620.91466576
  entropy T*S    EENTRO =         0.01159581
  eigenvalues    EBANDS =      -136.16186221
  atomic energy  EATOM  =       579.39041991
  ---------------------------------------------------
  free energy    TOTEN  =       -13.13698220 eV

  energy without entropy =      -13.14857801  energy(sigma->0) =      -13.14084747


--------------------------------------------------------------------------------------------------------




----------------------------------------- Iteration    1(  11)  ---------------------------------------


    POTLOK:  cpu time    0.21: real time    0.21
    SETDIJ:  cpu time    0.00: real time    0.00
     EDDAV:  cpu time    0.07: real time    0.07
       DOS:  cpu time    0.00: real time    0.00
    CHARGE:  cpu time    0.04: real time    0.04
    MIXING:  cpu time    0.01: real time    0.01
    --------------------------------------------
      LOOP:  cpu time    0.32: real time    0.32

 eigenvalue-minimisations  :    24
 total energy-change (2. order) :-0.8105178E-03  (-0.1310874E-04)
 number of electron      10.0000018 magnetization 
 augmentation part        0.5615456 magnetization 

 Broyden mixing:
  rms(total) = 0.23840E-02    rms(broyden)= 0.23835E-02
  rms(prec ) = 0.59437E-02
  weight for this iteration     100.00

 eigenvalues of (default mixing * dielectric matrix)
  average eigenvalue GAMMA=   1.5049
  2.4877  2.4877  0.5712  0.9391  1.2718  1.2718

 Free energy of the ion-electron system (eV)
  ---------------------------------------------------
  alpha Z        PSCENC =         1.34314163
  Ewald energy   TEWEN  =       -37.82129582
  -Hartree energ DENC   =      -456.72343054
  -exchange      EXHF   =         0.00000000
  -V(xc)+E(xc)   XCENC  =        39.02824545
  PAW double counting   =       618.57896324     -620.83702576
  entropy T*S    EENTRO =         0.01159581
  eigenvalues    EBANDS =      -136.10840664
  atomic energy  EATOM  =       579.39041991
  ---------------------------------------------------
  free energy    TOTEN  =       -13.13779272 eV

  energy without entropy =      -13.14938853  energy(sigma->0) =      -13.14165799


--------------------------------------------------------------------------------------------------------




----------------------------------------- Iteration    1(  12)  ---------------------------------------


    POTLOK:  cpu time    0.22: real time    0.22
    SETDIJ:  cpu time    0.00: real time    0.00
     EDDAV:  cpu time    0.08: real time    0.08
       DOS:  cpu time    0.00: real time    0.00
    CHARGE:  cpu time    0.04: real time    0.04
    MIXING:  cpu time    0.01: real time    0.01
    --------------------------------------------
      LOOP:  cpu time    0.35: real time    0.35

 eigenvalue-minimisations  :    24
 total energy-change (2. order) :-0.1409627E-02  (-0.2398420E-04)
 number of electron      10.0000018 magnetization 
 augmentation part        0.5614641 magnetization 

 Broyden mixing:
  rms(total) = 0.10764E-02    rms(broyden)= 0.10762E-02
  rms(prec ) = 0.21601E-02
  weight for this iteration     100.00

 eigenvalues of (default mixing * dielectric matrix)
  average eigenvalue GAMMA=   1.6431
  3.5893  2.4385  1.9407  0.5711  0.9537  1.0041  1.0041

 Free energy of the ion-electron system (eV)
  ---------------------------------------------------
  alpha Z        PSCENC =         1.34314163
  Ewald energy   TEWEN  =       -37.82129582
  -Hartree energ DENC   =      -456.78604135
  -exchange      EXHF   =         0.00000000
  -V(xc)+E(xc)   XCENC  =        39.03022367
  PAW double counting   =       617.74350033     -620.00115143
  entropy T*S    EENTRO =         0.01159581
  eigenvalues    EBANDS =      -136.04959510
  atomic energy  EATOM  =       579.39041991
  ---------------------------------------------------
  free energy    TOTEN  =       -13.13920234 eV

  energy without entropy =      -13.15079816  energy(sigma->0) =      -13.14306761


--------------------------------------------------------------------------------------------------------




----------------------------------------- Iteration    1(  13)  ---------------------------------------


    POTLOK:  cpu time    0.21: real time    0.21
    SETDIJ:  cpu time    0.00: real time    0.00
     EDDAV:  cpu time    0.07: real time    0.07
       DOS:  cpu time    0.00: real time    0.00
    CHARGE:  cpu time    0.03: real time    0.03
    MIXING:  cpu time    0.01: real time    0.01
    --------------------------------------------
      LOOP:  cpu time    0.33: real time    0.33

 eigenvalue-minimisations  :    24
 total energy-change (2. order) :-0.3444684E-03  (-0.3824408E-05)
 number of electron      10.0000018 magnetization 
 augmentation part        0.5614562 magnetization 

 Broyden mixing:
  rms(total) = 0.66829E-03    rms(broyden)= 0.66810E-03
  rms(prec ) = 0.11767E-02
  weight for this iteration     100.00

 eigenvalues of (default mixing * dielectric matrix)
  average eigenvalue GAMMA=   1.9926
  5.1311  2.9948  2.3112  1.9591  0.5711  0.9402  1.0166  1.0166

 Free energy of the ion-electron system (eV)
  ---------------------------------------------------
  alpha Z        PSCENC =         1.34314163
  Ewald energy   TEWEN  =       -37.82129582
  -Hartree energ DENC   =      -456.79342171
  -exchange      EXHF   =         0.00000000
  -V(xc)+E(xc)   XCENC  =        39.03042274
  PAW double counting   =       617.72626473     -619.98404441
  entropy T*S    EENTRO =         0.01159581
  eigenvalues    EBANDS =      -136.04262969
  atomic energy  EATOM  =       579.39041991
  ---------------------------------------------------
  free energy    TOTEN  =       -13.13954681 eV

  energy without entropy =      -13.15114262  energy(sigma->0) =      -13.14341208


--------------------------------------------------------------------------------------------------------




----------------------------------------- Iteration    1(  14)  ---------------------------------------


    POTLOK:  cpu time    0.22: real time    0.22
    SETDIJ:  cpu time    0.00: real time    0.00
     EDDAV:  cpu time    0.07: real time    0.07
       DOS:  cpu time    0.00: real time    0.00
    CHARGE:  cpu time    0.03: real time    0.03
    MIXING:  cpu time    0.01: real time    0.01
    --------------------------------------------
      LOOP:  cpu time    0.33: real time    0.33

 eigenvalue-minimisations  :    24
 total energy-change (2. order) :-0.1970410E-03  (-0.3049639E-05)
 number of electron      10.0000018 magnetization 
 augmentation part        0.5614819 magnetization 

 Broyden mixing:
  rms(total) = 0.28802E-03    rms(broyden)= 0.28791E-03
  rms(prec ) = 0.44838E-03
  weight for this iteration     100.00

 eigenvalues of (default mixing * dielectric matrix)
  average eigenvalue GAMMA=   1.8413
  5.1777  2.9017  2.3665  1.9278  0.5711  1.0076  1.0076  0.9439  0.6678

 Free energy of the ion-electron system (eV)
  ---------------------------------------------------
  alpha Z        PSCENC =         1.34314163
  Ewald energy   TEWEN  =       -37.82129582
  -Hartree energ DENC   =      -456.77730390
  -exchange      EXHF   =         0.00000000
  -V(xc)+E(xc)   XCENC  =        39.02929388
  PAW double counting   =       617.90120853     -620.15922034
  entropy T*S    EENTRO =         0.01159581
  eigenvalues    EBANDS =      -136.05758356
  atomic energy  EATOM  =       579.39041991
  ---------------------------------------------------
  free energy    TOTEN  =       -13.13974385 eV

  energy without entropy =      -13.15133967  energy(sigma->0) =      -13.14360912


--------------------------------------------------------------------------------------------------------




----------------------------------------- Iteration    1(  15)  ---------------------------------------


    POTLOK:  cpu time    0.21: real time    0.21
    SETDIJ:  cpu time    0.00: real time    0.00
     EDDAV:  cpu time    0.07: real time    0.07
       DOS:  cpu time    0.00: real time    0.00
    --------------------------------------------
      LOOP:  cpu time    0.28: real time    0.28

 eigenvalue-minimisations  :    24
 total energy-change (2. order) :-0.4096035E-05  (-0.5935249E-07)
 number of electron      10.0000018 magnetization 
 augmentation part        0.5614819 magnetization 

 Free energy of the ion-electron system (eV)
  ---------------------------------------------------
  alpha Z        PSCENC =         1.34314163
  Ewald energy   TEWEN  =       -37.82129582
  -Hartree energ DENC   =      -456.77620948
  -exchange      EXHF   =         0.00000000
  -V(xc)+E(xc)   XCENC  =        39.02930534
  PAW double counting   =       617.93000275     -620.18797194
  entropy T*S    EENTRO =         0.01159581
  eigenvalues    EBANDS =      -136.05873614
  atomic energy  EATOM  =       579.39041991
  ---------------------------------------------------
  free energy    TOTEN  =       -13.13974795 eV

  energy without entropy =      -13.15134376  energy(sigma->0) =      -13.14361322


--------------------------------------------------------------------------------------------------------




 average (electrostatic) potential at core
  the test charge radii are     0.6991  0.7215
  (the norm of the test charge is              1.0000)
       1 -62.2261       2 -82.3682
 
 
 
 E-fermi :  -8.7519     XC(G=0):  -1.7897     alpha+bet : -0.5383


 k-point     1 :       0.0000    0.0000    0.0000
  band No.  band energies     occupation 
      1     -25.9351      2.00000
      2     -13.8071      2.00000
      3      -9.6835      2.00000
      4      -9.6835      2.00000
      5      -8.9202      2.00000
      6      -3.3910     -0.00000
      7      -3.3910     -0.00000
      8      -0.2866      0.00000
      9       1.6255      0.00000
     10       2.0924      0.00000
     11       2.6375      0.00000
     12       3.0550      0.00000


--------------------------------------------------------------------------------------------------------


 soft charge-density along one line, spin component           1
         0         1         2         3         4         5         6         7         8         9
 total charge-density along one line
 
 pseudopotential strength for first ion, spin component:           1
 10.421  13.864   0.000   0.014   0.000  -0.000  -0.044  -0.000
 13.864  18.444   0.000   0.019   0.000  -0.000  -0.058  -0.000
  0.000   0.000  -4.596  -0.000  -0.000   9.016   0.000   0.000
  0.014   0.019  -0.000  -4.578   0.000   0.000   8.977  -0.000
  0.000   0.000  -0.000   0.000  -4.596   0.000  -0.000   9.016
 -0.000  -0.000   9.016   0.000   0.000 -19.837  -0.000  -0.000
 -0.044  -0.058   0.000   8.977  -0.000  -0.000 -19.748   0.000
 -0.000  -0.000   0.000  -0.000   9.016  -0.000   0.000 -19.837
 total augmentation occupancy for first ion, spin component:           1
  3.792  -1.251   0.000   0.951   0.000   0.000   0.160   0.000
 -1.251   0.817   0.000  -0.904   0.000   0.000  -0.103   0.000
  0.000   0.000   0.627   0.000   0.000   0.034   0.000   0.000
  0.951  -0.904   0.000   1.564  -0.000  -0.000   0.120   0.000
  0.000   0.000   0.000  -0.000   0.627   0.000   0.000   0.034
  0.000   0.000   0.034  -0.000   0.000   0.002   0.000   0.000
  0.160  -0.103  -0.000   0.120   0.000   0.000   0.013   0.000
 -0.000   0.000   0.000   0.000   0.034   0.000   0.000   0.002


------------------------ aborting loop because EDIFF is reached ----------------------------------------


    CHARGE:  cpu time    0.04: real time    0.04
    FORLOC:  cpu time    0.01: real time    0.01
    FORNL :  cpu time    0.00: real time    0.00
    STRESS:  cpu time    0.04: real time    0.04
    FORCOR:  cpu time    0.20: real time    0.20
    FORHAR:  cpu time    0.05: real time    0.05
    MIXING:  cpu time    0.01: real time    0.01
    OFIELD:  cpu time    0.00: real time    0.00

  FORCE on cell =-STRESS in cart. coord.  units (eV):
  Direction    XX          YY          ZZ          XY          YZ          ZX
  --------------------------------------------------------------------------------------
  Alpha Z     1.34314     1.34314     1.34314
  Ewald     -83.90377   -83.90377   129.98626     0.00000    -0.00000     0.00000
  Hartree   127.94097   127.94097   200.87752    -0.00000    -0.00000    -0.00000
  E(xc)     -42.54967   -42.54967   -41.52206    -0.00000    -0.00000    -0.00000
  Local    -177.03879  -177.03879  -456.04462     0.00000    -0.00000     0.00000
  n-local   -16.02897   -16.02897   -23.70827     0.00000    -0.00000     0.00000
  augment     6.01298     6.01298     5.90225    -0.00000     0.00000     0.00000
  Kinetic   183.44546   183.44548   166.52025    -0.00000    -0.00000    -0.00000
  Fock        0.00000     0.00000     0.00000     0.00000     0.00000     0.00000
  -------------------------------------------------------------------------------------
  Total      -0.77863    -0.77863   -16.64553     0.00000     0.00000    -0.00000
  in kB      -3.83466    -3.83466   -81.97675     0.00000     0.00000    -0.00000
  external pressure =      -29.88 kB  Pullay stress =        0.00 kB


 VOLUME and BASIS-vectors are now :
 -----------------------------------------------------------------------------
  energy-cutoff  :      400.00
  volume of cell :      325.33
      direct lattice vectors                 reciprocal lattice vectors
     6.500000000  0.000000000  0.000000000     0.153846154  0.000000000  0.000000000
     0.000000000  6.500000000  0.000000000     0.000000000  0.153846154  0.000000000
     0.000000000  0.000000000  7.700000000     0.000000000  0.000000000  0.129870130

  length of vectors
     6.500000000  6.500000000  7.700000000     0.153846154  0.153846154  0.129870130


 FORCES acting on ions
    electron-ion (+dipol)            ewald-force                    non-local-force                 convergence-correction
 -----------------------------------------------------------------------------------------------
   0.540E-13 0.617E-13 0.169E+03   -.134E-16 -.480E-16 -.183E+03   0.000E+00 0.000E+00 0.261E+02   -.964E-14 -.131E-13 0.220E-02
   0.294E-12 -.103E-11 -.149E+03   0.536E-16 0.174E-15 0.183E+03   0.000E+00 0.000E+00 -.453E+02   -.405E-13 -.651E-13 -.110E-01
 -----------------------------------------------------------------------------------------------
   0.348E-12 -.970E-12 0.192E+02   0.402E-16 0.126E-15 0.000E+00   0.000E+00 0.000E+00 -.192E+02   -.501E-13 -.781E-13 -.885E-02
 
 
 POSITION                                       TOTAL-FORCE (eV/Angst)
 -----------------------------------------------------------------------------------
      3.25000      3.25000      3.16960         0.000000      0.000000     11.776562
      3.25000      3.25000      4.53040         0.000000      0.000000    -11.776562
 -----------------------------------------------------------------------------------
    total drift:                                0.000000     -0.000000      0.001747


--------------------------------------------------------------------------------------------------------



  FREE ENERGIE OF THE ION-ELECTRON SYSTEM (eV)
  ---------------------------------------------------
  free  energy   TOTEN  =       -13.13974795 eV

  energy  without entropy=      -13.15134376  energy(sigma->0) =      -13.14361322
 


--------------------------------------------------------------------------------------------------------


    POTLOK:  cpu time    0.20: real time    0.20


--------------------------------------------------------------------------------------------------------




--------------------------------------------------------------------------------------------------------


    WAVPRE:  cpu time    0.04: real time    0.04
 FEWALD executed in parallel
    FEWALD:  cpu time    0.00: real time    0.00
    ORTHCH:  cpu time    0.00: real time    0.00
     LOOP+:  cpu time    5.05: real time    5.05


----------------------------------------- Iteration    2(   1)  ---------------------------------------


    POTLOK:  cpu time    0.24: real time    0.24
    SETDIJ:  cpu time    0.00: real time    0.00
     EDDAV:  cpu time    0.07: real time    0.07
       DOS:  cpu time    0.00: real time    0.00
    CHARGE:  cpu time    0.03: real time    0.03
    MIXING:  cpu time    0.01: real time    0.01
    --------------------------------------------
      LOOP:  cpu time    0.35: real time    0.35

 eigenvalue-minimisations  :    24
 total energy-change (2. order) : 0.9067983E+03  (-0.2871832E+03)
 number of electron      10.0000012 magnetization 
 augmentation part        1.6018092 magnetization 

 Broyden mixing:
  rms(total) = 0.27014E+02    rms(broyden)= 0.27013E+02
  rms(prec ) = 0.27050E+02
  weight for this iteration     100.00

 Free energy of the ion-electron system (eV)
  ---------------------------------------------------
  alpha Z        PSCENC =         1.34314163
  Ewald energy   TEWEN  =      1245.13941970
  -Hartree energ DENC   =      -616.60305627
  -exchange      EXHF   =         0.00000000
  -V(xc)+E(xc)   XCENC  =        44.43333571
  PAW double counting   =       617.97428135     -620.23208799
  entropy T*S    EENTRO =         0.01159581
  eigenvalues    EBANDS =      -357.79845971
  atomic energy  EATOM  =       579.39041991
  ---------------------------------------------------
  free energy    TOTEN  =       893.65859013 eV

  energy without entropy =      893.64699432  energy(sigma->0) =      893.65472486


--------------------------------------------------------------------------------------------------------




----------------------------------------- Iteration    2(   2)  ---------------------------------------


    POTLOK:  cpu time    0.23: real time    0.24
    SETDIJ:  cpu time    0.00: real time    0.00
     EDDAV:  cpu time    0.08: real time    0.08
       DOS:  cpu time    0.00: real time    0.00
    CHARGE:  cpu time    0.03: real time    0.03
    MIXING:  cpu time    0.01: real time    0.01
    --------------------------------------------
      LOOP:  cpu time    0.36: real time    0.36

 eigenvalue-minimisations  :    28
 total energy-change (2. order) :-0.3290165E+01  (-0.9939610E+01)
 number of electron      10.0000015 magnetization 
 augmentation part        1.6536388 magnetization 

 Broyden mixing:
  rms(total) = 0.92345E+01    rms(broyden)= 0.92337E+01
  rms(prec ) = 0.93211E+01
  weight for this iteration     100.00

 eigenvalues of (default mixing * dielectric matrix)
  average eigenvalue GAMMA=   1.5044
  1.5044

 Free energy of the ion-electron system (eV)
  ---------------------------------------------------
  alpha Z        PSCENC =         1.34314163
  Ewald energy   TEWEN  =      1245.13941970
  -Hartree energ DENC   =      -615.44941627
  -exchange      EXHF   =         0.00000000
  -V(xc)+E(xc)   XCENC  =        44.54330543
  PAW double counting   =     31996.65773954   -32001.92961532
  entropy T*S    EENTRO =         0.01159581
  eigenvalues    EBANDS =      -359.33816578
  atomic energy  EATOM  =       579.39041991
  ---------------------------------------------------
  free energy    TOTEN  =       890.36842465 eV

  energy without entropy =      890.35682884  energy(sigma->0) =      890.36455938


--------------------------------------------------------------------------------------------------------




----------------------------------------- Iteration    2(   3)  ---------------------------------------


    POTLOK:  cpu time    0.21: real time    0.21
    SETDIJ:  cpu time    0.00: real time    0.00
     EDDAV:  cpu time    0.11: real time    0.11
       DOS:  cpu time    0.00: real time    0.00
    CHARGE:  cpu time    0.07: real time    0.07
    MIXING:  cpu time    0.01: real time    0.01
    --------------------------------------------
      LOOP:  cpu time    0.41: real time    0.41

 eigenvalue-minimisations  :    24
 total energy-change (2. order) : 0.6305794E+01  (-0.1131571E+01)
 number of electron      10.0000015 magnetization 
 augmentation part        1.5871833 magnetization 

 Broyden mixing:
  rms(total) = 0.22657E+01    rms(broyden)= 0.22656E+01
  rms(prec ) = 0.23079E+01
  weight for this iteration     100.00

 eigenvalues of (default mixing * dielectric matrix)
  average eigenvalue GAMMA=   1.2745
  1.2745  1.2745

 Free energy of the ion-electron system (eV)
  ---------------------------------------------------
  alpha Z        PSCENC =         1.34314163
  Ewald energy   TEWEN  =      1245.13941970
  -Hartree energ DENC   =      -637.07700960
  -exchange      EXHF   =         0.00000000
  -V(xc)+E(xc)   XCENC  =        46.13296215
  PAW double counting   =     66202.40854756   -66211.98746481
  entropy T*S    EENTRO =         0.01159581
  eigenvalues    EBANDS =      -328.68739354
  atomic energy  EATOM  =       579.39041991
  ---------------------------------------------------
  free energy    TOTEN  =       896.67421880 eV

  energy without entropy =      896.66262299  energy(sigma->0) =      896.67035353


--------------------------------------------------------------------------------------------------------




----------------------------------------- Iteration    2(   4)  ---------------------------------------


    POTLOK:  cpu time    0.43: real time    0.43
    SETDIJ:  cpu time    0.01: real time    0.01
     EDDAV:  cpu time    0.13: real time    0.13
       DOS:  cpu time    0.00: real time    0.00
    CHARGE:  cpu time    0.07: real time    0.07
    MIXING:  cpu time    0.01: real time    0.01
    --------------------------------------------
      LOOP:  cpu time    0.66: real time    0.66

 eigenvalue-minimisations  :    28
 total energy-change (2. order) : 0.2337905E+00  (-0.1197594E-01)
 number of electron      10.0000015 magnetization 
 augmentation part        1.5840780 magnetization 

 Broyden mixing:
  rms(total) = 0.10074E+01    rms(broyden)= 0.10074E+01
  rms(prec ) = 0.10627E+01
  weight for this iteration     100.00

 eigenvalues of (default mixing * dielectric matrix)
  average eigenvalue GAMMA=   1.7937
  0.9936  1.7788  2.6086

 Free energy of the ion-electron system (eV)
  ---------------------------------------------------
  alpha Z        PSCENC =         1.34314163
  Ewald energy   TEWEN  =      1245.13941970
  -Hartree energ DENC   =      -630.52316703
  -exchange      EXHF   =         0.00000000
  -V(xc)+E(xc)   XCENC  =        45.98602860
  PAW double counting   =     55759.26693009   -55769.19457809
  entropy T*S    EENTRO =         0.01159581
  eigenvalues    EBANDS =      -334.51178131
  atomic energy  EATOM  =       579.39041991
  ---------------------------------------------------
  free energy    TOTEN  =       896.90800930 eV

  energy without entropy =      896.89641349  energy(sigma->0) =      896.90414403


--------------------------------------------------------------------------------------------------------




----------------------------------------- Iteration    2(   5)  ---------------------------------------


    POTLOK:  cpu time    0.34: real time    0.34
    SETDIJ:  cpu time    0.00: real time    0.00
     EDDAV:  cpu time    0.10: real time    0.10
       DOS:  cpu time    0.00: real time    0.00
    CHARGE:  cpu time    0.05: real time    0.05
    MIXING:  cpu time    0.01: real time    0.01
    --------------------------------------------
      LOOP:  cpu time    0.50: real time    0.50

 eigenvalue-minimisations  :    28
 total energy-change (2. order) : 0.3297351E+00  (-0.3830709E-01)
 number of electron      10.0000015 magnetization 
 augmentation part        1.5639993 magnetization 

 Broyden mixing:
  rms(total) = 0.82669E+00    rms(broyden)= 0.82664E+00
  rms(prec ) = 0.82941E+00
  weight for this iteration     100.00

 eigenvalues of (default mixing * dielectric matrix)
  average eigenvalue GAMMA=   1.5162
  2.3966  1.5177  1.1836  0.9670

 Free energy of the ion-electron system (eV)
  ---------------------------------------------------
  alpha Z        PSCENC =         1.34314163
  Ewald energy   TEWEN  =      1245.13941970
  -Hartree energ DENC   =      -620.28186680
  -exchange      EXHF   =         0.00000000
  -V(xc)+E(xc)   XCENC  =        46.08549911
  PAW double counting   =     42266.22995299   -42277.49843366
  entropy T*S    EENTRO =         0.01159581
  eigenvalues    EBANDS =      -343.18198431
  atomic energy  EATOM  =       579.39041991
  ---------------------------------------------------
  free energy    TOTEN  =       897.23774436 eV

  energy without entropy =      897.22614855  energy(sigma->0) =      897.23387909


--------------------------------------------------------------------------------------------------------




----------------------------------------- Iteration    2(   6)  ---------------------------------------


    POTLOK:  cpu time    0.23: real time    0.23
    SETDIJ:  cpu time    0.00: real time    0.00
     EDDAV:  cpu time    0.09: real time    0.09
       DOS:  cpu time    0.00: real time    0.00
    CHARGE:  cpu time    0.03: real time    0.03
    MIXING:  cpu time    0.01: real time    0.01
    --------------------------------------------
      LOOP:  cpu time    0.37: real time    0.37

 eigenvalue-minimisations  :    32
 total energy-change (2. order) :-0.1004424E-01  (-0.3719804E-02)
 number of electron      10.0000015 magnetization 
 augmentation part        1.5615287 magnetization 

 Broyden mixing:
  rms(total) = 0.14037E+00    rms(broyden)= 0.14035E+00
  rms(prec ) = 0.15070E+00
  weight for this iteration     100.00

 eigenvalues of (default mixing * dielectric matrix)
  average eigenvalue GAMMA=   1.7847
  2.5438  2.5438  1.7029  0.9886  1.1442

 Free energy of the ion-electron system (eV)
  ---------------------------------------------------
  alpha Z        PSCENC =         1.34314163
  Ewald energy   TEWEN  =      1245.13941970
  -Hartree energ DENC   =      -621.56854817
  -exchange      EXHF   =         0.00000000
  -V(xc)+E(xc)   XCENC  =        46.14414782
  PAW double counting   =     47568.04583332   -47579.29172391
  entropy T*S    EENTRO =         0.01159581
  eigenvalues    EBANDS =      -341.98658598
  atomic energy  EATOM  =       579.39041991
  ---------------------------------------------------
  free energy    TOTEN  =       897.22770012 eV

  energy without entropy =      897.21610431  energy(sigma->0) =      897.22383485


--------------------------------------------------------------------------------------------------------




----------------------------------------- Iteration    2(   7)  ---------------------------------------


    POTLOK:  cpu time    0.21: real time    0.21
    SETDIJ:  cpu time    0.00: real time    0.00
     EDDAV:  cpu time    0.11: real time    0.11
       DOS:  cpu time    0.00: real time    0.00
    CHARGE:  cpu time    0.03: real time    0.03
    MIXING:  cpu time    0.01: real time    0.01
    --------------------------------------------
      LOOP:  cpu time    0.36: real time    0.36

 eigenvalue-minimisations  :    28
 total energy-change (2. order) :-0.2166846E-03  (-0.1240688E-02)
 number of electron      10.0000015 magnetization 
 augmentation part        1.5621036 magnetization 

 Broyden mixing:
  rms(total) = 0.98209E-02    rms(broyden)= 0.98178E-02
  rms(prec ) = 0.26908E-01
  weight for this iteration     100.00

 eigenvalues of (default mixing * dielectric matrix)
  average eigenvalue GAMMA=   1.7365
  2.9404  1.8098  1.8098  1.8437  1.0077  1.0077

 Free energy of the ion-electron system (eV)
  ---------------------------------------------------
  alpha Z        PSCENC =         1.34314163
  Ewald energy   TEWEN  =      1245.13941970
  -Hartree energ DENC   =      -618.84749784
  -exchange      EXHF   =         0.00000000
  -V(xc)+E(xc)   XCENC  =        46.06832705
  PAW double counting   =     47380.06968379   -47391.20654813
  entropy T*S    EENTRO =         0.01159581
  eigenvalues    EBANDS =      -344.74105848
  atomic energy  EATOM  =       579.39041991
  ---------------------------------------------------
  free energy    TOTEN  =       897.22748344 eV

  energy without entropy =      897.21588763  energy(sigma->0) =      897.22361817


--------------------------------------------------------------------------------------------------------




----------------------------------------- Iteration    2(   8)  ---------------------------------------


    POTLOK:  cpu time    0.22: real time    0.22
    SETDIJ:  cpu time    0.00: real time    0.00
     EDDAV:  cpu time    0.07: real time    0.07
       DOS:  cpu time    0.00: real time    0.00
    CHARGE:  cpu time    0.03: real time    0.03
    MIXING:  cpu time    0.01: real time    0.01
    --------------------------------------------
      LOOP:  cpu time    0.33: real time    0.33

 eigenvalue-minimisations  :    24
 total energy-change (2. order) :-0.3906150E-02  (-0.5205190E-03)
 number of electron      10.0000015 magnetization 
 augmentation part        1.5622003 magnetization 

 Broyden mixing:
  rms(total) = 0.88619E-01    rms(broyden)= 0.88618E-01
  rms(prec ) = 0.89664E-01
  weight for this iteration     100.00

 eigenvalues of (default mixing * dielectric matrix)
  average eigenvalue GAMMA=   1.8047
  3.4916  2.5819  1.6902  0.9663  1.0515  1.4258  1.4258

 Free energy of the ion-electron system (eV)
  ---------------------------------------------------
  alpha Z        PSCENC =         1.34314163
  Ewald energy   TEWEN  =      1245.13941970
  -Hartree energ DENC   =      -617.73110033
  -exchange      EXHF   =         0.00000000
  -V(xc)+E(xc)   XCENC  =        46.03750350
  PAW double counting   =     47153.46555117   -47164.56863559
  entropy T*S    EENTRO =         0.01159581
  eigenvalues    EBANDS =      -345.86431851
  atomic energy  EATOM  =       579.39041991
  ---------------------------------------------------
  free energy    TOTEN  =       897.22357729 eV

  energy without entropy =      897.21198148  energy(sigma->0) =      897.21971202


--------------------------------------------------------------------------------------------------------




----------------------------------------- Iteration    2(   9)  ---------------------------------------


    POTLOK:  cpu time    0.23: real time    0.23
    SETDIJ:  cpu time    0.00: real time    0.00
     EDDAV:  cpu time    0.07: real time    0.07
       DOS:  cpu time    0.00: real time    0.00
    CHARGE:  cpu time    0.03: real time    0.03
    MIXING:  cpu time    0.01: real time    0.01
    --------------------------------------------
      LOOP:  cpu time    0.34: real time    0.34

 eigenvalue-minimisations  :    24
 total energy-change (2. order) :-0.1822218E-02  (-0.1417821E-03)
 number of electron      10.0000015 magnetization 
 augmentation part        1.5620255 magnetization 

 Broyden mixing:
  rms(total) = 0.24781E-01    rms(broyden)= 0.24781E-01
  rms(prec ) = 0.25640E-01
  weight for this iteration     100.00

 eigenvalues of (default mixing * dielectric matrix)
  average eigenvalue GAMMA=   1.8503
  3.8846  2.5140  1.9151  1.9151  1.3249  1.3249  0.9257  0.9980

 Free energy of the ion-electron system (eV)
  ---------------------------------------------------
  alpha Z        PSCENC =         1.34314163
  Ewald energy   TEWEN  =      1245.13941970
  -Hartree energ DENC   =      -617.61612656
  -exchange      EXHF   =         0.00000000
  -V(xc)+E(xc)   XCENC  =        46.03377317
  PAW double counting   =     47823.46844403   -47834.55400469
  entropy T*S    EENTRO =         0.01159581
  eigenvalues    EBANDS =      -345.99490792
  atomic energy  EATOM  =       579.39041991
  ---------------------------------------------------
  free energy    TOTEN  =       897.22175507 eV

  energy without entropy =      897.21015926  energy(sigma->0) =      897.21788980


--------------------------------------------------------------------------------------------------------




----------------------------------------- Iteration    2(  10)  ---------------------------------------


    POTLOK:  cpu time    0.22: real time    0.22
    SETDIJ:  cpu time    0.00: real time    0.00
     EDDAV:  cpu time    0.08: real time    0.08
       DOS:  cpu time    0.00: real time    0.00
    CHARGE:  cpu time    0.03: real time    0.03
    MIXING:  cpu time    0.01: real time    0.01
    --------------------------------------------
      LOOP:  cpu time    0.34: real time    0.34

 eigenvalue-minimisations  :    24
 total energy-change (2. order) :-0.9894186E-03  (-0.9531939E-04)
 number of electron      10.0000015 magnetization 
 augmentation part        1.5620166 magnetization 

 Broyden mixing:
  rms(total) = 0.60593E-02    rms(broyden)= 0.60592E-02
  rms(prec ) = 0.66489E-02
  weight for this iteration     100.00

 eigenvalues of (default mixing * dielectric matrix)
  average eigenvalue GAMMA=   2.1371
  6.1156  3.1174  2.4630  1.5950  1.5950  0.9668  0.9668  1.2072  1.2072

 Free energy of the ion-electron system (eV)
  ---------------------------------------------------
  alpha Z        PSCENC =         1.34314163
  Ewald energy   TEWEN  =      1245.13941970
  -Hartree energ DENC   =      -617.51995595
  -exchange      EXHF   =         0.00000000
  -V(xc)+E(xc)   XCENC  =        46.02961774
  PAW double counting   =     47597.49945997   -47608.59396423
  entropy T*S    EENTRO =         0.01159581
  eigenvalues    EBANDS =      -346.07896892
  atomic energy  EATOM  =       579.39041991
  ---------------------------------------------------
  free energy    TOTEN  =       897.22076565 eV

  energy without entropy =      897.20916984  energy(sigma->0) =      897.21690038


--------------------------------------------------------------------------------------------------------




----------------------------------------- Iteration    2(  11)  ---------------------------------------


    POTLOK:  cpu time    0.22: real time    0.22
    SETDIJ:  cpu time    0.00: real time    0.00
     EDDAV:  cpu time    0.07: real time    0.07
       DOS:  cpu time    0.00: real time    0.00
    CHARGE:  cpu time    0.03: real time    0.03
    MIXING:  cpu time    0.01: real time    0.01
    --------------------------------------------
      LOOP:  cpu time    0.33: real time    0.33

 eigenvalue-minimisations  :    24
 total energy-change (2. order) :-0.3202836E-03  (-0.5289591E-04)
 number of electron      10.0000015 magnetization 
 augmentation part        1.5620196 magnetization 

 Broyden mixing:
  rms(total) = 0.50529E-02    rms(broyden)= 0.50528E-02
  rms(prec ) = 0.51582E-02
  weight for this iteration     100.00

 eigenvalues of (default mixing * dielectric matrix)
  average eigenvalue GAMMA=   2.3181
  6.9253  3.4795  2.8993  2.4309  1.7787  1.3405  1.3405  1.0052  0.9982  0.9830

 Free energy of the ion-electron system (eV)
  ---------------------------------------------------
  alpha Z        PSCENC =         1.34314163
  Ewald energy   TEWEN  =      1245.13941970
  -Hartree energ DENC   =      -617.50383256
  -exchange      EXHF   =         0.00000000
  -V(xc)+E(xc)   XCENC  =        46.02842383
  PAW double counting   =     47566.30031668   -47577.40069452
  entropy T*S    EENTRO =         0.01159581
  eigenvalues    EBANDS =      -346.08834511
  atomic energy  EATOM  =       579.39041991
  ---------------------------------------------------
  free energy    TOTEN  =       897.22044537 eV

  energy without entropy =      897.20884956  energy(sigma->0) =      897.21658010


--------------------------------------------------------------------------------------------------------




----------------------------------------- Iteration    2(  12)  ---------------------------------------


    POTLOK:  cpu time    0.26: real time    0.27
    SETDIJ:  cpu time    0.00: real time    0.00
     EDDAV:  cpu time    0.08: real time    0.08
       DOS:  cpu time    0.00: real time    0.00
    --------------------------------------------
      LOOP:  cpu time    0.35: real time    0.35

 eigenvalue-minimisations  :    24
 total energy-change (2. order) :-0.4480063E-04  (-0.9429560E-05)
 number of electron      10.0000015 magnetization 
 augmentation part        1.5620196 magnetization 

 Free energy of the ion-electron system (eV)
  ---------------------------------------------------
  alpha Z        PSCENC =         1.34314163
  Ewald energy   TEWEN  =      1245.13941970
  -Hartree energ DENC   =      -617.46108512
  -exchange      EXHF   =         0.00000000
  -V(xc)+E(xc)   XCENC  =        46.02644997
  PAW double counting   =     47607.30495332   -47618.40457849
  entropy T*S    EENTRO =         0.01159581
  eigenvalues    EBANDS =      -346.12991616
  atomic energy  EATOM  =       579.39041991
  ---------------------------------------------------
  free energy    TOTEN  =       897.22040057 eV

  energy without entropy =      897.20880476  energy(sigma->0) =      897.21653530


--------------------------------------------------------------------------------------------------------




 average (electrostatic) potential at core
  the test charge radii are     0.6991  0.7215
  (the norm of the test charge is              1.0000)
       1-111.0089       2-117.4652
 
 
 
 E-fermi :  -2.7728     XC(G=0):  -3.2207     alpha+bet : -0.5383


 k-point     1 :       0.0000    0.0000    0.0000
  band No.  band energies     occupation 
      1     -47.6083      2.00000
      2     -47.6083      2.00000
      3     -44.5365      2.00000
      4     -30.3706      2.00000
      5      -2.9412      2.00000
      6      -1.6592     -0.00000
      7      -1.5679     -0.00000
      8      -1.5679     -0.00000
      9       0.1038     -0.00000
     10       0.4300     -0.00000
     11       1.1376     -0.00000
     12       2.7653      0.00000


--------------------------------------------------------------------------------------------------------


 soft charge-density along one line, spin component           1
         0         1         2         3         4         5         6         7         8         9
 total charge-density along one line
 
 pseudopotential strength for first ion, spin component:           1
 13.933  18.598  -0.000   0.120  -0.000   0.000  -0.417   0.000
 18.598  24.824  -0.000   0.158  -0.000   0.000  -0.552   0.000
 -0.000  -0.000  -7.043  -0.000   0.000  13.494   0.000  -0.000
  0.120   0.158  -0.000  -6.924  -0.000   0.000  13.286   0.000
 -0.000  -0.000   0.000  -0.000  -7.043  -0.000   0.000  13.494
  0.000   0.000  13.494   0.000  -0.000 -28.137  -0.000   0.000
 -0.417  -0.552   0.000  13.286   0.000  -0.000 -27.770  -0.000
  0.000   0.000  -0.000   0.000  13.494   0.000  -0.000 -28.137
 total augmentation occupancy for first ion, spin component:           1
241.695 *******   0.000  15.921  -0.000   0.000  -4.056  -0.000
******* 156.511   0.000 -11.855  -0.000   0.000   3.054  -0.000
  0.000   0.000   1.118   0.000   0.000  -0.459   0.000   0.000
 15.921 -11.855   0.000   1.646   0.000   0.000  -0.409   0.000
 -0.000   0.000   0.000   0.000   1.118   0.000  -0.000  -0.459
  0.000   0.000  -0.459   0.000   0.000   0.188   0.000   0.000
 -4.056   3.054   0.000  -0.409  -0.000   0.000   0.103   0.000
  0.000  -0.000   0.000   0.000  -0.459   0.000   0.000   0.188


------------------------ aborting loop because EDIFF is reached ----------------------------------------


    CHARGE:  cpu time    0.03: real time    0.03
    FORLOC:  cpu time    0.01: real time    0.01
    FORNL :  cpu time    0.00: real time    0.00
    STRESS:  cpu time    0.04: real time    0.04
    FORCOR:  cpu time    0.21: real time    0.21
    FORHAR:  cpu time    0.05: real time    0.05
    MIXING:  cpu time    0.01: real time    0.01
    OFIELD:  cpu time    0.00: real time    0.00

  FORCE on cell =-STRESS in cart. coord.  units (eV):
  Direction    XX          YY          ZZ          XY          YZ          ZX
  --------------------------------------------------------------------------------------
  Alpha Z     1.34314     1.34314     1.34314
  Ewald     -80.46374   -80.46374  1406.06563    -0.00000    -0.00000    -0.00000
  Hartree   218.25789   218.25789   180.95674    -0.00000    -0.00000    -0.00000
  E(xc)     -50.38594   -50.38594   -50.25262    -0.00000     0.00000    -0.00000
  Local    -302.49713  -302.49713  -261.24660    -0.00000     0.00000    -0.00000
  n-local   -19.44758   -19.44758   -44.74095    -0.00000    -0.00000     0.00000
  augment    10.89638    10.89638    18.31925    -0.00000     0.00000    -0.00000
  Kinetic   216.70581   216.70581   217.66679     0.00000     0.00000    -0.00000
  Fock        0.00000     0.00000     0.00000     0.00000     0.00000     0.00000
  -------------------------------------------------------------------------------------
  Total      -5.59117    -5.59117  1468.11137     0.00000     0.00000    -0.00000
  in kB     -27.53571   -27.53571  7230.23057     0.00000     0.00000    -0.00000
  external pressure =     2391.72 kB  Pullay stress =        0.00 kB


 VOLUME and BASIS-vectors are now :
 -----------------------------------------------------------------------------
  energy-cutoff  :      400.00
  volume of cell :      325.33
      direct lattice vectors                 reciprocal lattice vectors
     6.500000000  0.000000000  0.000000000     0.153846154  0.000000000  0.000000000
     0.000000000  6.500000000  0.000000000     0.000000000  0.153846154  0.000000000
     0.000000000  0.000000000  7.700000000     0.000000000  0.000000000  0.129870130

  length of vectors
     6.500000000  6.500000000  7.700000000     0.153846154  0.153846154  0.129870130


 FORCES acting on ions
    electron-ion (+dipol)            ewald-force                    non-local-force                 convergence-correction
 -----------------------------------------------------------------------------------------------
   0.230E-12 0.824E-12 0.195E+03   0.415E-16 0.116E-15 -.685E+04   0.000E+00 -.129E-25 0.104E+03   -.241E-13 -.279E-13 0.103E-02
   0.511E-12 0.445E-12 -.201E+03   -.128E-17 0.106E-16 0.685E+04   0.000E+00 0.194E-25 -.974E+02   -.536E-13 -.564E-13 0.506E-02
 -----------------------------------------------------------------------------------------------
   0.741E-12 0.127E-11 -.634E+01   0.402E-16 0.126E-15 0.000E+00   0.000E+00 0.646E-26 0.633E+01   -.777E-13 -.842E-13 0.609E-02
 
 
 POSITION                                       TOTAL-FORCE (eV/Angst)
 -----------------------------------------------------------------------------------
      3.25000      3.25000      3.73773         0.000000      0.000000  -6555.846565
      3.25000      3.25000      3.96227         0.000000     -0.000000   6555.846565
[...]
  ---------------------------------------------------
  free energy    TOTEN  =       -14.79332695 eV

  energy without entropy =      -14.80492276  energy(sigma->0) =      -14.79719222


--------------------------------------------------------------------------------------------------------




 average (electrostatic) potential at core
  the test charge radii are     0.6991  0.7215
  (the norm of the test charge is              1.0000)
       1 -61.3194       2 -83.1119
 
 
 
 E-fermi :  -8.4623     XC(G=0):  -1.6780     alpha+bet : -0.5383


 k-point     1 :       0.0000    0.0000    0.0000
  band No.  band energies     occupation 
      1     -28.7448      2.00000
      2     -13.6143      2.00000
      3     -11.2594      2.00000
      4     -11.2594      2.00000
      5      -8.6307      2.00000
      6      -1.7330      0.00000
      7      -1.7330      0.00000
      8      -0.1979      0.00000
      9       1.8032      0.00000
     10       2.1884      0.00000
     11       2.6834      0.00000
     12       3.0485      0.00000


--------------------------------------------------------------------------------------------------------


 soft charge-density along one line, spin component           1
         0         1         2         3         4         5         6         7         8         9
 total charge-density along one line
 
 pseudopotential strength for first ion, spin component:           1
 10.390  13.821   0.000   0.025   0.000  -0.000  -0.081  -0.000
 13.821  18.385   0.000   0.032   0.000  -0.000  -0.107  -0.000
  0.000   0.000  -4.527  -0.000   0.000   8.865   0.000  -0.000
  0.025   0.032  -0.000  -4.534   0.000   0.000   8.866  -0.000
  0.000   0.000   0.000   0.000  -4.527  -0.000  -0.000   8.865
 -0.000  -0.000   8.865   0.000  -0.000 -19.508  -0.000   0.000
 -0.081  -0.107   0.000   8.866  -0.000  -0.000 -19.484   0.000
 -0.000  -0.000  -0.000  -0.000   8.865   0.000   0.000 -19.508
 total augmentation occupancy for first ion, spin component:           1
  7.438  -3.392  -0.000   2.063   0.000  -0.000   0.372  -0.000
 -3.392   1.946   0.000  -1.586   0.000   0.000  -0.229   0.000
 -0.000   0.000   0.822  -0.000   0.000   0.062   0.000   0.000
  2.063  -1.586  -0.000   2.215   0.000   0.000   0.210   0.000
  0.000   0.000   0.000   0.000   0.822   0.000   0.000   0.062
 -0.000   0.000   0.062  -0.000   0.000   0.005  -0.000   0.000
  0.372  -0.229   0.000   0.210   0.000  -0.000   0.028   0.000
 -0.000   0.000   0.000   0.000   0.062   0.000   0.000   0.005


------------------------ aborting loop because EDIFF is reached ----------------------------------------


    CHARGE:  cpu time    0.03: real time    0.03
    FORLOC:  cpu time    0.01: real time    0.01
    FORNL :  cpu time    0.00: real time    0.00
    STRESS:  cpu time    0.04: real time    0.04
    FORCOR:  cpu time    0.20: real time    0.20
    FORHAR:  cpu time    0.05: real time    0.05
    MIXING:  cpu time    0.01: real time    0.01
    OFIELD:  cpu time    0.00: real time    0.00

  FORCE on cell =-STRESS in cart. coord.  units (eV):
  Direction    XX          YY          ZZ          XY          YZ          ZX
  --------------------------------------------------------------------------------------
  Alpha Z     1.34314     1.34314     1.34314
  Ewald     -82.96694   -82.96694   174.23874    -0.00000     0.00000     0.00000
  Hartree   142.80093   142.80093   209.24399    -0.00000    -0.00000    -0.00000
  E(xc)     -43.93274   -43.93274   -42.82583    -0.00000    -0.00000    -0.00000
  Local    -196.32872  -196.32872  -494.25454     0.00000     0.00000    -0.00000
  n-local   -18.41252   -18.41241   -29.62429     0.00001     0.00000    -0.00000
  augment     6.21570     6.21570     5.76967     0.00000     0.00000    -0.00000
  Kinetic   190.54064   190.54042   174.73519    -0.00006    -0.00000    -0.00000
  Fock        0.00000     0.00000     0.00000     0.00000     0.00000     0.00000
  -------------------------------------------------------------------------------------
  Total      -0.74055    -0.74055    -1.37393     0.00000     0.00000     0.00000
  in kB      -3.64710    -3.64710    -6.76642     0.00000     0.00000     0.00000
  external pressure =       -4.69 kB  Pullay stress =        0.00 kB


 VOLUME and BASIS-vectors are now :
 -----------------------------------------------------------------------------
  energy-cutoff  :      400.00
  volume of cell :      325.33
      direct lattice vectors                 reciprocal lattice vectors
     6.500000000  0.000000000  0.000000000     0.153846154  0.000000000  0.000000000
     0.000000000  6.500000000  0.000000000     0.000000000  0.153846154  0.000000000
     0.000000000  0.000000000  7.700000000     0.000000000  0.000000000  0.129870130

  length of vectors
     6.500000000  6.500000000  7.700000000     0.153846154  0.153846154  0.129870130


 FORCES acting on ions
    electron-ion (+dipol)            ewald-force                    non-local-force                 convergence-correction
 -----------------------------------------------------------------------------------------------
   0.870E-13 -.293E-12 0.231E+03   -.151E-15 0.119E-15 -.259E+03   0.000E+00 0.404E-27 0.280E+02   -.171E-13 0.791E-14 -.259E-01
   0.316E-12 -.695E-12 -.200E+03   0.192E-15 0.707E-17 0.259E+03   -.323E-26 0.000E+00 -.591E+02   -.596E-13 -.504E-13 -.538E-02
 -----------------------------------------------------------------------------------------------
   0.403E-12 -.988E-12 0.311E+02   0.402E-16 0.126E-15 0.000E+00   -.323E-26 0.404E-27 -.311E+02   -.767E-13 -.425E-13 -.313E-01
 
 
 POSITION                                       TOTAL-FORCE (eV/Angst)
 -----------------------------------------------------------------------------------
      3.25000      3.25000      3.27553        -0.000000      0.000000      0.635669
      3.25000      3.25000      4.42447         0.000000      0.000000     -0.635669
 -----------------------------------------------------------------------------------
    total drift:                                0.000000     -0.000000     -0.019002


--------------------------------------------------------------------------------------------------------



  FREE ENERGIE OF THE ION-ELECTRON SYSTEM (eV)
  ---------------------------------------------------
  free  energy   TOTEN  =       -14.79332695 eV

  energy  without entropy=      -14.80492276  energy(sigma->0) =      -14.79719222
 
 d Force = 0.3714717E-01[-0.193E-01, 0.936E-01]  d Energy = 0.3507513E-01 0.207E-02
 d Force = 0.8071140E+01[ 0.785E+01, 0.829E+01]  d Ewald  = 0.8068224E+01 0.292E-02


--------------------------------------------------------------------------------------------------------


    POTLOK:  cpu time    0.20: real time    0.20


--------------------------------------------------------------------------------------------------------




--------------------------------------------------------------------------------------------------------


    WAVPRE:  cpu time    0.05: real time    0.05
 FEWALD executed in parallel
    FEWALD:  cpu time    0.00: real time    0.00
    ORTHCH:  cpu time    0.00: real time    0.00
     LOOP+:  cpu time    1.85: real time    1.85


----------------------------------------- Iteration   11(   1)  ---------------------------------------


    POTLOK:  cpu time    0.20: real time    0.20
    SETDIJ:  cpu time    0.00: real time    0.00
     EDDAV:  cpu time    0.08: real time    0.08
       DOS:  cpu time    0.00: real time    0.00
    CHARGE:  cpu time    0.03: real time    0.03
    MIXING:  cpu time    0.01: real time    0.01
    --------------------------------------------
      LOOP:  cpu time    0.32: real time    0.32

 eigenvalue-minimisations  :    24
 total energy-change (2. order) :-0.2033571E-02  (-0.6917786E-02)
 number of electron      10.0000000 magnetization 
 augmentation part        0.6523831 magnetization 

 Broyden mixing:
  rms(total) = 0.12503E-01    rms(broyden)= 0.12477E-01
  rms(prec ) = 0.15002E-01
  weight for this iteration     100.00

 Free energy of the ion-electron system (eV)
  ---------------------------------------------------
  alpha Z        PSCENC =         1.34314163
  Ewald energy   TEWEN  =         9.65245981
  -Hartree energ DENC   =      -495.57279516
  -exchange      EXHF   =         0.00000000
  -V(xc)+E(xc)   XCENC  =        40.38240595
  PAW double counting   =       853.44976316     -855.89462255
  entropy T*S    EENTRO =         0.01159581
  eigenvalues    EBANDS =      -147.55764361
  atomic energy  EATOM  =       579.39041991
  ---------------------------------------------------
  free energy    TOTEN  =       -14.79527506 eV

  energy without entropy =      -14.80687087  energy(sigma->0) =      -14.79914033


--------------------------------------------------------------------------------------------------------




----------------------------------------- Iteration   11(   2)  ---------------------------------------


    POTLOK:  cpu time    0.21: real time    0.21
    SETDIJ:  cpu time    0.00: real time    0.00
     EDDAV:  cpu time    0.08: real time    0.08
       DOS:  cpu time    0.00: real time    0.00
    CHARGE:  cpu time    0.03: real time    0.03
    MIXING:  cpu time    0.01: real time    0.01
    --------------------------------------------
      LOOP:  cpu time    0.32: real time    0.32

 eigenvalue-minimisations  :    24
 total energy-change (2. order) :-0.4029298E-05  (-0.1549433E-03)
 number of electron      10.0000000 magnetization 
 augmentation part        0.6528642 magnetization 

 Broyden mixing:
  rms(total) = 0.54083E-02    rms(broyden)= 0.54031E-02
  rms(prec ) = 0.68900E-02
  weight for this iteration     100.00

 eigenvalues of (default mixing * dielectric matrix)
  average eigenvalue GAMMA=   1.3379
  1.3379

 Free energy of the ion-electron system (eV)
  ---------------------------------------------------
  alpha Z        PSCENC =         1.34314163
  Ewald energy   TEWEN  =         9.65245981
  -Hartree energ DENC   =      -495.72579238
  -exchange      EXHF   =         0.00000000
  -V(xc)+E(xc)   XCENC  =        40.39134889
  PAW double counting   =       857.50680398     -859.95468776
  entropy T*S    EENTRO =         0.01159581
  eigenvalues    EBANDS =      -147.41056897
  atomic energy  EATOM  =       579.39041991
  ---------------------------------------------------
  free energy    TOTEN  =       -14.79527909 eV

  energy without entropy =      -14.80687490  energy(sigma->0) =      -14.79914436


--------------------------------------------------------------------------------------------------------




----------------------------------------- Iteration   11(   3)  ---------------------------------------


    POTLOK:  cpu time    0.21: real time    0.21
    SETDIJ:  cpu time    0.00: real time    0.00
     EDDAV:  cpu time    0.07: real time    0.07
       DOS:  cpu time    0.00: real time    0.00
    --------------------------------------------
      LOOP:  cpu time    0.28: real time    0.28

 eigenvalue-minimisations  :    24
 total energy-change (2. order) : 0.3174200E-06  (-0.1816710E-04)
 number of electron      10.0000000 magnetization 
 augmentation part        0.6528642 magnetization 

 Free energy of the ion-electron system (eV)
  ---------------------------------------------------
  alpha Z        PSCENC =         1.34314163
  Ewald energy   TEWEN  =         9.65245981
  -Hartree energ DENC   =      -495.84927049
  -exchange      EXHF   =         0.00000000
  -V(xc)+E(xc)   XCENC  =        40.39800632
  PAW double counting   =       860.07209598     -862.52400352
  entropy T*S    EENTRO =         0.01159581
  eigenvalues    EBANDS =      -147.28972420
  atomic energy  EATOM  =       579.39041991
  ---------------------------------------------------
  free energy    TOTEN  =       -14.79527877 eV

  energy without entropy =      -14.80687458  energy(sigma->0) =      -14.79914404


--------------------------------------------------------------------------------------------------------




 average (electrostatic) potential at core
  the test charge radii are     0.6991  0.7215
  (the norm of the test charge is              1.0000)
       1 -61.2897       2 -83.1316
 
 
 
 E-fermi :  -8.4502     XC(G=0):  -1.7332     alpha+bet : -0.5383


 k-point     1 :       0.0000    0.0000    0.0000
  band No.  band energies     occupation 
      1     -28.8192      2.00000
      2     -13.6053      2.00000
      3     -11.3008      2.00000
      4     -11.3008      2.00000
      5      -8.6186      2.00000
      6      -1.6806      0.00000
      7      -1.6806      0.00000
      8      -0.2527      0.00000
      9       1.7600      0.00000
     10       2.1332      0.00000
     11       2.6330      0.00000
     12       2.9973      0.00000


--------------------------------------------------------------------------------------------------------


 soft charge-density along one line, spin component           1
         0         1         2         3         4         5         6         7         8         9
 total charge-density along one line
 
 pseudopotential strength for first ion, spin component:           1
 10.389  13.820   0.000   0.025   0.000  -0.000  -0.083  -0.000
 13.820  18.384   0.000   0.033   0.000  -0.000  -0.110  -0.000
  0.000   0.000  -4.525  -0.000   0.000   8.860   0.000  -0.000
  0.025   0.033  -0.000  -4.533   0.000   0.000   8.863  -0.000
  0.000   0.000   0.000   0.000  -4.525  -0.000  -0.000   8.860
 -0.000  -0.000   8.860   0.000  -0.000 -19.497  -0.000   0.000
 -0.083  -0.110   0.000   8.863  -0.000  -0.000 -19.477   0.000
 -0.000  -0.000  -0.000  -0.000   8.860   0.000   0.000 -19.497
 total augmentation occupancy for first ion, spin component:           1
  7.556  -3.460   0.000   2.093   0.000   0.000   0.377   0.000
 -3.460   1.982  -0.000  -1.603   0.000   0.000  -0.232  -0.000
  0.000  -0.000   0.831  -0.000   0.000   0.063   0.000   0.000
  2.093  -1.603  -0.000   2.233   0.000  -0.000   0.212   0.000
  0.000   0.000   0.000   0.000   0.831   0.000   0.000   0.063
  0.000   0.000   0.063   0.000   0.000   0.005   0.000   0.000
  0.377  -0.232   0.000   0.212   0.000   0.000   0.028   0.000
  0.000  -0.000   0.000   0.000   0.063   0.000   0.000   0.005


------------------------ aborting loop because EDIFF is reached ----------------------------------------


    CHARGE:  cpu time    0.03: real time    0.03
    FORLOC:  cpu time    0.01: real time    0.01
    FORNL :  cpu time    0.00: real time    0.00
    STRESS:  cpu time    0.04: real time    0.04
    FORCOR:  cpu time    0.20: real time    0.20
    FORHAR:  cpu time    0.05: real time    0.05
    MIXING:  cpu time    0.01: real time    0.01
    OFIELD:  cpu time    0.00: real time    0.00

  FORCE on cell =-STRESS in cart. coord.  units (eV):
  Direction    XX          YY          ZZ          XY          YZ          ZX
  --------------------------------------------------------------------------------------
  Alpha Z     1.34314     1.34314     1.34314
  Ewald     -82.94528   -82.94528   175.54302    -0.00000    -0.00000    -0.00000
  Hartree   143.20920   143.20920   209.44718    -0.00000    -0.00000    -0.00000
  E(xc)     -43.97737   -43.97737   -42.86850    -0.00000     0.00000    -0.00000
  Local    -196.87954  -196.87954  -495.18922     0.00000    -0.00000    -0.00000
  n-local   -18.47759   -18.47760   -29.76285    -0.00000     0.00000    -0.00000
  augment     6.22326     6.22326     5.74297    -0.00000     0.00000    -0.00000
  Kinetic   190.73850   190.73847   174.99217     0.00002     0.00000     0.00000
  Fock        0.00000     0.00000     0.00000     0.00000     0.00000     0.00000
  -------------------------------------------------------------------------------------
  Total      -0.76569    -0.76569    -0.75209     0.00000     0.00000     0.00000
  in kB      -3.77091    -3.77091    -3.70395     0.00000     0.00000     0.00000
  external pressure =       -3.75 kB  Pullay stress =        0.00 kB


 VOLUME and BASIS-vectors are now :
 -----------------------------------------------------------------------------
  energy-cutoff  :      400.00
  volume of cell :      325.33
      direct lattice vectors                 reciprocal lattice vectors
     6.500000000  0.000000000  0.000000000     0.153846154  0.000000000  0.000000000
     0.000000000  6.500000000  0.000000000     0.000000000  0.153846154  0.000000000
     0.000000000  0.000000000  7.700000000     0.000000000  0.000000000  0.129870130

  length of vectors
     6.500000000  6.500000000  7.700000000     0.153846154  0.153846154  0.129870130


 FORCES acting on ions
    electron-ion (+dipol)            ewald-force                    non-local-force                 convergence-correction
 -----------------------------------------------------------------------------------------------
   0.962E-13 -.253E-12 0.233E+03   0.977E-16 0.492E-16 -.261E+03   -.404E-27 0.000E+00 0.280E+02   -.133E-13 -.130E-12 -.726E-02
   0.311E-12 -.149E-12 -.202E+03   -.575E-16 0.772E-16 0.261E+03   0.000E+00 0.323E-26 -.595E+02   -.638E-13 -.221E-12 0.502E-01
 -----------------------------------------------------------------------------------------------
   0.408E-12 -.402E-12 0.314E+02   0.402E-16 0.126E-15 0.000E+00   -.404E-27 0.323E-26 -.315E+02   -.770E-13 -.351E-12 0.429E-01
 
 
 POSITION                                       TOTAL-FORCE (eV/Angst)
 -----------------------------------------------------------------------------------
      3.25000      3.25000      3.27812         0.000000      0.000000      0.045444
      3.25000      3.25000      4.42188        -0.000000     -0.000000     -0.045444
 -----------------------------------------------------------------------------------
    total drift:                                0.000000     -0.000000      0.001671


--------------------------------------------------------------------------------------------------------



  FREE ENERGIE OF THE ION-ELECTRON SYSTEM (eV)
  ---------------------------------------------------
  free  energy   TOTEN  =       -14.79527877 eV

  energy  without entropy=      -14.80687458  energy(sigma->0) =      -14.79914404
 
 d Force = 0.1764901E-02[ 0.236E-03, 0.329E-02]  d Energy = 0.1951820E-02-0.187E-03
 d Force =-0.1347615E+01[-0.135E+01,-0.134E+01]  d Ewald  =-0.1347601E+01-0.139E-04


--------------------------------------------------------------------------------------------------------


    POTLOK:  cpu time    0.20: real time    0.20


--------------------------------------------------------------------------------------------------------




--------------------------------------------------------------------------------------------------------


  
 reached required accuracy - stopping structural energy minimisation
 writing wavefunctions
     LOOP+:  cpu time    2.00: real time    2.00
    4ORBIT:  cpu time    0.00: real time    0.00

 total amount of memory used by VASP on root node    51227. kBytes
========================================================================

   base      :      30000. kBytes
   nonl-proj :        953. kBytes
   fftplans  :       6407. kBytes
   grid      :      13575. kBytes
   one-center:          6. kBytes
   wavefun   :        286. kBytes
 
  
  
 General timing and accounting informations for this job:
 ========================================================
  
                  Total CPU time used (sec):       42.659
                            User time (sec):       41.640
                          System time (sec):        1.020
                         Elapsed time (sec):       43.683
  
                   Maximum memory used (kb):       54184.
                   Average memory used (kb):           0.
  
                          Minor page faults:       261082
                          Major page faults:            2
                 Voluntary context switches:           18
